+ 0 0 2 tcp 40 C--A--- 0 0.0 4.0 0 0
- 0 0 2 tcp 40 C--A--- 0 0.0 4.0 0 0
r 0.002032 0 2 tcp 40 C--A--- 0 0.0 4.0 0 0
+ 0.002032 2 3 tcp 40 C--A--- 0 0.0 4.0 0 0
- 0.002032 2 3 tcp 40 C--A--- 0 0.0 4.0 0 0
r 0.012245 2 3 tcp 40 C--A--- 0 0.0 4.0 0 0
+ 0.012245 3 4 tcp 40 C--A--- 0 0.0 4.0 0 0
- 0.012245 3 4 tcp 40 C--A--- 0 0.0 4.0 0 0
r 0.016277 3 4 tcp 40 C--A--- 0 0.0 4.0 0 0
+ 0.016277 4 3 ack 40 C------ 0 4.0 0.0 0 1
- 0.016277 4 3 ack 40 C------ 0 4.0 0.0 0 1
r 0.020309 4 3 ack 40 C------ 0 4.0 0.0 0 1
+ 0.020309 3 2 ack 40 C------ 0 4.0 0.0 0 1
- 0.020309 3 2 ack 40 C------ 0 4.0 0.0 0 1
r 0.030523 3 2 ack 40 C------ 0 4.0 0.0 0 1
+ 0.030523 2 0 ack 40 C------ 0 4.0 0.0 0 1
- 0.030523 2 0 ack 40 C------ 0 4.0 0.0 0 1
r 0.032555 2 0 ack 40 C------ 0 4.0 0.0 0 1
+ 0.032555 0 2 tcp 40 ------- 0 0.0 4.0 1 2
- 0.032555 0 2 tcp 40 ------- 0 0.0 4.0 1 2
+ 0.032555 0 2 tcp 1000 ------N 0 0.0 4.0 1 3
- 0.032587 0 2 tcp 1000 ------N 0 0.0 4.0 1 3
r 0.034587 0 2 tcp 40 ------- 0 0.0 4.0 1 2
+ 0.034587 2 3 tcp 40 ------- 0 0.0 4.0 1 2
- 0.034587 2 3 tcp 40 ------- 0 0.0 4.0 1 2
r 0.035387 0 2 tcp 1000 ------N 0 0.0 4.0 1 3
+ 0.035387 2 3 tcp 1000 ------N 0 0.0 4.0 1 3
- 0.035387 2 3 tcp 1000 ------N 0 0.0 4.0 1 3
r 0.0448 2 3 tcp 40 ------- 0 0.0 4.0 1 2
+ 0.0448 3 4 tcp 40 ------- 0 0.0 4.0 1 2
- 0.0448 3 4 tcp 40 ------- 0 0.0 4.0 1 2
r 0.048832 3 4 tcp 40 ------- 0 0.0 4.0 1 2
r 0.05072 2 3 tcp 1000 ------N 0 0.0 4.0 1 3
+ 0.05072 3 4 tcp 1000 ------N 0 0.0 4.0 1 3
- 0.05072 3 4 tcp 1000 ------N 0 0.0 4.0 1 3
r 0.05552 3 4 tcp 1000 ------N 0 0.0 4.0 1 3
+ 0.05552 4 3 ack 40 ------- 0 4.0 0.0 1 4
- 0.05552 4 3 ack 40 ------- 0 4.0 0.0 1 4
r 0.059552 4 3 ack 40 ------- 0 4.0 0.0 1 4
+ 0.059552 3 2 ack 40 ------- 0 4.0 0.0 1 4
- 0.059552 3 2 ack 40 ------- 0 4.0 0.0 1 4
r 0.069765 3 2 ack 40 ------- 0 4.0 0.0 1 4
+ 0.069765 2 0 ack 40 ------- 0 4.0 0.0 1 4
- 0.069765 2 0 ack 40 ------- 0 4.0 0.0 1 4
r 0.071797 2 0 ack 40 ------- 0 4.0 0.0 1 4
+ 0.071797 0 2 tcp 1000 ------N 0 0.0 4.0 961 5
- 0.071797 0 2 tcp 1000 ------N 0 0.0 4.0 961 5
+ 0.071797 0 2 tcp 1000 ------N 0 0.0 4.0 1921 6
- 0.072597 0 2 tcp 1000 ------N 0 0.0 4.0 1921 6
r 0.074597 0 2 tcp 1000 ------N 0 0.0 4.0 961 5
+ 0.074597 2 3 tcp 1000 ------N 0 0.0 4.0 961 5
- 0.074597 2 3 tcp 1000 ------N 0 0.0 4.0 961 5
r 0.075397 0 2 tcp 1000 ------N 0 0.0 4.0 1921 6
+ 0.075397 2 3 tcp 1000 ------N 0 0.0 4.0 1921 6
- 0.079931 2 3 tcp 1000 ------N 0 0.0 4.0 1921 6
r 0.089931 2 3 tcp 1000 ------N 0 0.0 4.0 961 5
+ 0.089931 3 4 tcp 1000 ------N 0 0.0 4.0 961 5
- 0.089931 3 4 tcp 1000 ------N 0 0.0 4.0 961 5
r 0.094731 3 4 tcp 1000 ------N 0 0.0 4.0 961 5
+ 0.094731 4 3 ack 40 ------- 0 4.0 0.0 1 7
- 0.094731 4 3 ack 40 ------- 0 4.0 0.0 1 7
r 0.095264 2 3 tcp 1000 ------N 0 0.0 4.0 1921 6
+ 0.095264 3 4 tcp 1000 ------N 0 0.0 4.0 1921 6
- 0.095264 3 4 tcp 1000 ------N 0 0.0 4.0 1921 6
r 0.098763 4 3 ack 40 ------- 0 4.0 0.0 1 7
+ 0.098763 3 2 ack 40 ------- 0 4.0 0.0 1 7
- 0.098763 3 2 ack 40 ------- 0 4.0 0.0 1 7
r 0.100064 3 4 tcp 1000 ------N 0 0.0 4.0 1921 6
+ 0.100064 4 3 ack 40 ------- 0 4.0 0.0 1 8
- 0.100064 4 3 ack 40 ------- 0 4.0 0.0 1 8
r 0.104096 4 3 ack 40 ------- 0 4.0 0.0 1 8
+ 0.104096 3 2 ack 40 ------- 0 4.0 0.0 1 8
- 0.104096 3 2 ack 40 ------- 0 4.0 0.0 1 8
r 0.108976 3 2 ack 40 ------- 0 4.0 0.0 1 7
+ 0.108976 2 0 ack 40 ------- 0 4.0 0.0 1 7
- 0.108976 2 0 ack 40 ------- 0 4.0 0.0 1 7
r 0.111008 2 0 ack 40 ------- 0 4.0 0.0 1 7
+ 0.111008 0 2 tcp 1000 ------N 0 0.0 4.0 2881 9
- 0.111008 0 2 tcp 1000 ------N 0 0.0 4.0 2881 9
+ 0.111008 0 2 tcp 1000 ------N 0 0.0 4.0 3841 10
- 0.111808 0 2 tcp 1000 ------N 0 0.0 4.0 3841 10
r 0.113808 0 2 tcp 1000 ------N 0 0.0 4.0 2881 9
+ 0.113808 2 3 tcp 1000 ------N 0 0.0 4.0 2881 9
- 0.113808 2 3 tcp 1000 ------N 0 0.0 4.0 2881 9
r 0.114309 3 2 ack 40 ------- 0 4.0 0.0 1 8
+ 0.114309 2 0 ack 40 ------- 0 4.0 0.0 1 8
- 0.114309 2 0 ack 40 ------- 0 4.0 0.0 1 8
r 0.114608 0 2 tcp 1000 ------N 0 0.0 4.0 3841 10
+ 0.114608 2 3 tcp 1000 ------N 0 0.0 4.0 3841 10
r 0.116341 2 0 ack 40 ------- 0 4.0 0.0 1 8
+ 0.116341 0 2 tcp 1000 ------N 0 0.0 4.0 4801 11
- 0.116341 0 2 tcp 1000 ------N 0 0.0 4.0 4801 11
+ 0.116341 0 2 tcp 1000 ------N 0 0.0 4.0 5761 12
- 0.117141 0 2 tcp 1000 ------N 0 0.0 4.0 5761 12
- 0.119141 2 3 tcp 1000 ------N 0 0.0 4.0 3841 10
r 0.119141 0 2 tcp 1000 ------N 0 0.0 4.0 4801 11
+ 0.119141 2 3 tcp 1000 ------N 0 0.0 4.0 4801 11
r 0.119941 0 2 tcp 1000 ------N 0 0.0 4.0 5761 12
+ 0.119941 2 3 tcp 1000 ------N 0 0.0 4.0 5761 12
- 0.124475 2 3 tcp 1000 ------N 0 0.0 4.0 4801 11
r 0.129141 2 3 tcp 1000 ------N 0 0.0 4.0 2881 9
+ 0.129141 3 4 tcp 1000 ------N 0 0.0 4.0 2881 9
- 0.129141 3 4 tcp 1000 ------N 0 0.0 4.0 2881 9
- 0.129808 2 3 tcp 1000 ------N 0 0.0 4.0 5761 12
r 0.133941 3 4 tcp 1000 ------N 0 0.0 4.0 2881 9
+ 0.133941 4 3 ack 40 ------- 0 4.0 0.0 1 13
- 0.133941 4 3 ack 40 ------- 0 4.0 0.0 1 13
r 0.134475 2 3 tcp 1000 ------N 0 0.0 4.0 3841 10
+ 0.134475 3 4 tcp 1000 ------N 0 0.0 4.0 3841 10
- 0.134475 3 4 tcp 1000 ------N 0 0.0 4.0 3841 10
r 0.137973 4 3 ack 40 ------- 0 4.0 0.0 1 13
+ 0.137973 3 2 ack 40 ------- 0 4.0 0.0 1 13
- 0.137973 3 2 ack 40 ------- 0 4.0 0.0 1 13
r 0.139275 3 4 tcp 1000 ------N 0 0.0 4.0 3841 10
+ 0.139275 4 3 ack 40 ------- 0 4.0 0.0 1 14
- 0.139275 4 3 ack 40 ------- 0 4.0 0.0 1 14
r 0.139808 2 3 tcp 1000 ------N 0 0.0 4.0 4801 11
+ 0.139808 3 4 tcp 1000 ------N 0 0.0 4.0 4801 11
- 0.139808 3 4 tcp 1000 ------N 0 0.0 4.0 4801 11
r 0.143307 4 3 ack 40 ------- 0 4.0 0.0 1 14
+ 0.143307 3 2 ack 40 ------- 0 4.0 0.0 1 14
- 0.143307 3 2 ack 40 ------- 0 4.0 0.0 1 14
r 0.144608 3 4 tcp 1000 ------N 0 0.0 4.0 4801 11
+ 0.144608 4 3 ack 40 ------- 0 4.0 0.0 1 15
- 0.144608 4 3 ack 40 ------- 0 4.0 0.0 1 15
r 0.145141 2 3 tcp 1000 ------N 0 0.0 4.0 5761 12
+ 0.145141 3 4 tcp 1000 ------N 0 0.0 4.0 5761 12
- 0.145141 3 4 tcp 1000 ------N 0 0.0 4.0 5761 12
r 0.148187 3 2 ack 40 ------- 0 4.0 0.0 1 13
+ 0.148187 2 0 ack 40 ------- 0 4.0 0.0 1 13
- 0.148187 2 0 ack 40 ------- 0 4.0 0.0 1 13
r 0.14864 4 3 ack 40 ------- 0 4.0 0.0 1 15
+ 0.14864 3 2 ack 40 ------- 0 4.0 0.0 1 15
- 0.14864 3 2 ack 40 ------- 0 4.0 0.0 1 15
r 0.149941 3 4 tcp 1000 ------N 0 0.0 4.0 5761 12
+ 0.149941 4 3 ack 40 ------- 0 4.0 0.0 1 16
- 0.149941 4 3 ack 40 ------- 0 4.0 0.0 1 16
r 0.150219 2 0 ack 40 ------- 0 4.0 0.0 1 13
+ 0.150219 0 2 tcp 1000 ------N 0 0.0 4.0 6721 17
- 0.150219 0 2 tcp 1000 ------N 0 0.0 4.0 6721 17
+ 0.150219 0 2 tcp 1000 ------N 0 0.0 4.0 7681 18
- 0.151019 0 2 tcp 1000 ------N 0 0.0 4.0 7681 18
r 0.153019 0 2 tcp 1000 ------N 0 0.0 4.0 6721 17
+ 0.153019 2 3 tcp 1000 ------N 0 0.0 4.0 6721 17
- 0.153019 2 3 tcp 1000 ------N 0 0.0 4.0 6721 17
r 0.15352 3 2 ack 40 ------- 0 4.0 0.0 1 14
+ 0.15352 2 0 ack 40 ------- 0 4.0 0.0 1 14
- 0.15352 2 0 ack 40 ------- 0 4.0 0.0 1 14
r 0.153819 0 2 tcp 1000 ------N 0 0.0 4.0 7681 18
+ 0.153819 2 3 tcp 1000 ------N 0 0.0 4.0 7681 18
r 0.153973 4 3 ack 40 ------- 0 4.0 0.0 1 16
+ 0.153973 3 2 ack 40 ------- 0 4.0 0.0 1 16
- 0.153973 3 2 ack 40 ------- 0 4.0 0.0 1 16
r 0.155552 2 0 ack 40 ------- 0 4.0 0.0 1 14
+ 0.155552 0 2 tcp 1000 ------N 0 0.0 4.0 8641 19
- 0.155552 0 2 tcp 1000 ------N 0 0.0 4.0 8641 19
+ 0.155552 0 2 tcp 1000 ------N 0 0.0 4.0 9601 20
- 0.156352 0 2 tcp 1000 ------N 0 0.0 4.0 9601 20
- 0.158352 2 3 tcp 1000 ------N 0 0.0 4.0 7681 18
r 0.158352 0 2 tcp 1000 ------N 0 0.0 4.0 8641 19
+ 0.158352 2 3 tcp 1000 ------N 0 0.0 4.0 8641 19
r 0.158853 3 2 ack 40 ------- 0 4.0 0.0 1 15
+ 0.158853 2 0 ack 40 ------- 0 4.0 0.0 1 15
- 0.158853 2 0 ack 40 ------- 0 4.0 0.0 1 15
r 0.159152 0 2 tcp 1000 ------N 0 0.0 4.0 9601 20
+ 0.159152 2 3 tcp 1000 ------N 0 0.0 4.0 9601 20
r 0.160885 2 0 ack 40 ------- 0 4.0 0.0 1 15
+ 0.160885 0 2 tcp 1000 ------N 0 0.0 4.0 10561 21
- 0.160885 0 2 tcp 1000 ------N 0 0.0 4.0 10561 21
+ 0.160885 0 2 tcp 1000 ------N 0 0.0 4.0 11521 22
- 0.161685 0 2 tcp 1000 ------N 0 0.0 4.0 11521 22
- 0.163685 2 3 tcp 1000 ------N 0 0.0 4.0 8641 19
r 0.163685 0 2 tcp 1000 ------N 0 0.0 4.0 10561 21
+ 0.163685 2 3 tcp 1000 ------N 0 0.0 4.0 10561 21
r 0.164187 3 2 ack 40 ------- 0 4.0 0.0 1 16
+ 0.164187 2 0 ack 40 ------- 0 4.0 0.0 1 16
- 0.164187 2 0 ack 40 ------- 0 4.0 0.0 1 16
r 0.164485 0 2 tcp 1000 ------N 0 0.0 4.0 11521 22
+ 0.164485 2 3 tcp 1000 ------N 0 0.0 4.0 11521 22
r 0.166219 2 0 ack 40 ------- 0 4.0 0.0 1 16
+ 0.166219 0 2 tcp 1000 ------N 0 0.0 4.0 12481 23
- 0.166219 0 2 tcp 1000 ------N 0 0.0 4.0 12481 23
+ 0.166219 0 2 tcp 1000 ------N 0 0.0 4.0 13441 24
- 0.167019 0 2 tcp 1000 ------N 0 0.0 4.0 13441 24
r 0.168352 2 3 tcp 1000 ------N 0 0.0 4.0 6721 17
+ 0.168352 3 4 tcp 1000 ------N 0 0.0 4.0 6721 17
- 0.168352 3 4 tcp 1000 ------N 0 0.0 4.0 6721 17
- 0.169019 2 3 tcp 1000 ------N 0 0.0 4.0 9601 20
r 0.169019 0 2 tcp 1000 ------N 0 0.0 4.0 12481 23
+ 0.169019 2 3 tcp 1000 ------N 0 0.0 4.0 12481 23
r 0.169819 0 2 tcp 1000 ------N 0 0.0 4.0 13441 24
+ 0.169819 2 3 tcp 1000 ------N 0 0.0 4.0 13441 24
r 0.173152 3 4 tcp 1000 ------N 0 0.0 4.0 6721 17
+ 0.173152 4 3 ack 40 ------- 0 4.0 0.0 1 25
- 0.173152 4 3 ack 40 ------- 0 4.0 0.0 1 25
r 0.173685 2 3 tcp 1000 ------N 0 0.0 4.0 7681 18
+ 0.173685 3 4 tcp 1000 ------N 0 0.0 4.0 7681 18
- 0.173685 3 4 tcp 1000 ------N 0 0.0 4.0 7681 18
- 0.174352 2 3 tcp 1000 ------N 0 0.0 4.0 10561 21
r 0.177184 4 3 ack 40 ------- 0 4.0 0.0 1 25
+ 0.177184 3 2 ack 40 ------- 0 4.0 0.0 1 25
- 0.177184 3 2 ack 40 ------- 0 4.0 0.0 1 25
r 0.178485 3 4 tcp 1000 ------N 0 0.0 4.0 7681 18
+ 0.178485 4 3 ack 40 ------- 0 4.0 0.0 1 26
- 0.178485 4 3 ack 40 ------- 0 4.0 0.0 1 26
r 0.179019 2 3 tcp 1000 ------N 0 0.0 4.0 8641 19
+ 0.179019 3 4 tcp 1000 ------N 0 0.0 4.0 8641 19
- 0.179019 3 4 tcp 1000 ------N 0 0.0 4.0 8641 19
- 0.179685 2 3 tcp 1000 ------N 0 0.0 4.0 11521 22
r 0.182517 4 3 ack 40 ------- 0 4.0 0.0 1 26
+ 0.182517 3 2 ack 40 ------- 0 4.0 0.0 1 26
- 0.182517 3 2 ack 40 ------- 0 4.0 0.0 1 26
r 0.183819 3 4 tcp 1000 ------N 0 0.0 4.0 8641 19
+ 0.183819 4 3 ack 40 ------- 0 4.0 0.0 1 27
- 0.183819 4 3 ack 40 ------- 0 4.0 0.0 1 27
r 0.184352 2 3 tcp 1000 ------N 0 0.0 4.0 9601 20
+ 0.184352 3 4 tcp 1000 ------N 0 0.0 4.0 9601 20
- 0.184352 3 4 tcp 1000 ------N 0 0.0 4.0 9601 20
- 0.185019 2 3 tcp 1000 ------N 0 0.0 4.0 12481 23
r 0.187397 3 2 ack 40 ------- 0 4.0 0.0 1 25
+ 0.187397 2 0 ack 40 ------- 0 4.0 0.0 1 25
- 0.187397 2 0 ack 40 ------- 0 4.0 0.0 1 25
r 0.187851 4 3 ack 40 ------- 0 4.0 0.0 1 27
+ 0.187851 3 2 ack 40 ------- 0 4.0 0.0 1 27
- 0.187851 3 2 ack 40 ------- 0 4.0 0.0 1 27
r 0.189152 3 4 tcp 1000 ------N 0 0.0 4.0 9601 20
+ 0.189152 4 3 ack 40 ------- 0 4.0 0.0 1 28
- 0.189152 4 3 ack 40 ------- 0 4.0 0.0 1 28
r 0.189429 2 0 ack 40 ------- 0 4.0 0.0 1 25
+ 0.189429 0 2 tcp 1000 ------N 0 0.0 4.0 14401 29
- 0.189429 0 2 tcp 1000 ------N 0 0.0 4.0 14401 29
+ 0.189429 0 2 tcp 1000 ------N 0 0.0 4.0 15361 30
r 0.189685 2 3 tcp 1000 ------N 0 0.0 4.0 10561 21
+ 0.189685 3 4 tcp 1000 ------N 0 0.0 4.0 10561 21
- 0.189685 3 4 tcp 1000 ------N 0 0.0 4.0 10561 21
- 0.190229 0 2 tcp 1000 ------N 0 0.0 4.0 15361 30
- 0.190352 2 3 tcp 1000 ------N 0 0.0 4.0 13441 24
r 0.192229 0 2 tcp 1000 ------N 0 0.0 4.0 14401 29
+ 0.192229 2 3 tcp 1000 ------N 0 0.0 4.0 14401 29
r 0.192731 3 2 ack 40 ------- 0 4.0 0.0 1 26
+ 0.192731 2 0 ack 40 ------- 0 4.0 0.0 1 26
- 0.192731 2 0 ack 40 ------- 0 4.0 0.0 1 26
r 0.193029 0 2 tcp 1000 ------N 0 0.0 4.0 15361 30
+ 0.193029 2 3 tcp 1000 ------N 0 0.0 4.0 15361 30
r 0.193184 4 3 ack 40 ------- 0 4.0 0.0 1 28
+ 0.193184 3 2 ack 40 ------- 0 4.0 0.0 1 28
- 0.193184 3 2 ack 40 ------- 0 4.0 0.0 1 28
r 0.194485 3 4 tcp 1000 ------N 0 0.0 4.0 10561 21
+ 0.194485 4 3 ack 40 ------- 0 4.0 0.0 1 31
- 0.194485 4 3 ack 40 ------- 0 4.0 0.0 1 31
r 0.194763 2 0 ack 40 ------- 0 4.0 0.0 1 26
+ 0.194763 0 2 tcp 1000 ------N 0 0.0 4.0 16321 32
- 0.194763 0 2 tcp 1000 ------N 0 0.0 4.0 16321 32
+ 0.194763 0 2 tcp 1000 ------N 0 0.0 4.0 17281 33
r 0.195019 2 3 tcp 1000 ------N 0 0.0 4.0 11521 22
+ 0.195019 3 4 tcp 1000 ------N 0 0.0 4.0 11521 22
- 0.195019 3 4 tcp 1000 ------N 0 0.0 4.0 11521 22
- 0.195563 0 2 tcp 1000 ------N 0 0.0 4.0 17281 33
- 0.195685 2 3 tcp 1000 ------N 0 0.0 4.0 14401 29
r 0.197563 0 2 tcp 1000 ------N 0 0.0 4.0 16321 32
+ 0.197563 2 3 tcp 1000 ------N 0 0.0 4.0 16321 32
r 0.198064 3 2 ack 40 ------- 0 4.0 0.0 1 27
+ 0.198064 2 0 ack 40 ------- 0 4.0 0.0 1 27
- 0.198064 2 0 ack 40 ------- 0 4.0 0.0 1 27
r 0.198363 0 2 tcp 1000 ------N 0 0.0 4.0 17281 33
+ 0.198363 2 3 tcp 1000 ------N 0 0.0 4.0 17281 33
r 0.198517 4 3 ack 40 ------- 0 4.0 0.0 1 31
+ 0.198517 3 2 ack 40 ------- 0 4.0 0.0 1 31
- 0.198517 3 2 ack 40 ------- 0 4.0 0.0 1 31
r 0.199819 3 4 tcp 1000 ------N 0 0.0 4.0 11521 22
+ 0.199819 4 3 ack 40 ------- 0 4.0 0.0 1 34
- 0.199819 4 3 ack 40 ------- 0 4.0 0.0 1 34
r 0.200096 2 0 ack 40 ------- 0 4.0 0.0 1 27
+ 0.200096 0 2 tcp 1000 ------N 0 0.0 4.0 18241 35
- 0.200096 0 2 tcp 1000 ------N 0 0.0 4.0 18241 35
+ 0.200096 0 2 tcp 1000 ------N 0 0.0 4.0 19201 36
r 0.200352 2 3 tcp 1000 ------N 0 0.0 4.0 12481 23
+ 0.200352 3 4 tcp 1000 ------N 0 0.0 4.0 12481 23
- 0.200352 3 4 tcp 1000 ------N 0 0.0 4.0 12481 23
- 0.200896 0 2 tcp 1000 ------N 0 0.0 4.0 19201 36
- 0.201019 2 3 tcp 1000 ------N 0 0.0 4.0 15361 30
r 0.202896 0 2 tcp 1000 ------N 0 0.0 4.0 18241 35
+ 0.202896 2 3 tcp 1000 ------N 0 0.0 4.0 18241 35
r 0.203397 3 2 ack 40 ------- 0 4.0 0.0 1 28
+ 0.203397 2 0 ack 40 ------- 0 4.0 0.0 1 28
- 0.203397 2 0 ack 40 ------- 0 4.0 0.0 1 28
r 0.203696 0 2 tcp 1000 ------N 0 0.0 4.0 19201 36
+ 0.203696 2 3 tcp 1000 ------N 0 0.0 4.0 19201 36
r 0.203851 4 3 ack 40 ------- 0 4.0 0.0 1 34
+ 0.203851 3 2 ack 40 ------- 0 4.0 0.0 1 34
- 0.203851 3 2 ack 40 ------- 0 4.0 0.0 1 34
r 0.205152 3 4 tcp 1000 ------N 0 0.0 4.0 12481 23
+ 0.205152 4 3 ack 40 ------- 0 4.0 0.0 1 37
- 0.205152 4 3 ack 40 ------- 0 4.0 0.0 1 37
r 0.205429 2 0 ack 40 ------- 0 4.0 0.0 1 28
+ 0.205429 0 2 tcp 1000 ------N 0 0.0 4.0 20161 38
- 0.205429 0 2 tcp 1000 ------N 0 0.0 4.0 20161 38
+ 0.205429 0 2 tcp 1000 ------N 0 0.0 4.0 21121 39
r 0.205685 2 3 tcp 1000 ------N 0 0.0 4.0 13441 24
+ 0.205685 3 4 tcp 1000 ------N 0 0.0 4.0 13441 24
- 0.205685 3 4 tcp 1000 ------N 0 0.0 4.0 13441 24
- 0.206229 0 2 tcp 1000 ------N 0 0.0 4.0 21121 39
- 0.206352 2 3 tcp 1000 ------N 0 0.0 4.0 16321 32
r 0.208229 0 2 tcp 1000 ------N 0 0.0 4.0 20161 38
+ 0.208229 2 3 tcp 1000 ------N 0 0.0 4.0 20161 38
r 0.208731 3 2 ack 40 ------- 0 4.0 0.0 1 31
+ 0.208731 2 0 ack 40 ------- 0 4.0 0.0 1 31
- 0.208731 2 0 ack 40 ------- 0 4.0 0.0 1 31
r 0.209029 0 2 tcp 1000 ------N 0 0.0 4.0 21121 39
+ 0.209029 2 3 tcp 1000 ------N 0 0.0 4.0 21121 39
r 0.209184 4 3 ack 40 ------- 0 4.0 0.0 1 37
+ 0.209184 3 2 ack 40 ------- 0 4.0 0.0 1 37
- 0.209184 3 2 ack 40 ------- 0 4.0 0.0 1 37
r 0.210485 3 4 tcp 1000 ------N 0 0.0 4.0 13441 24
+ 0.210485 4 3 ack 40 ------- 0 4.0 0.0 1 40
- 0.210485 4 3 ack 40 ------- 0 4.0 0.0 1 40
r 0.210763 2 0 ack 40 ------- 0 4.0 0.0 1 31
+ 0.210763 0 2 tcp 1000 ------N 0 0.0 4.0 22081 41
- 0.210763 0 2 tcp 1000 ------N 0 0.0 4.0 22081 41
+ 0.210763 0 2 tcp 1000 ------N 0 0.0 4.0 23041 42
r 0.211019 2 3 tcp 1000 ------N 0 0.0 4.0 14401 29
+ 0.211019 3 4 tcp 1000 ------N 0 0.0 4.0 14401 29
- 0.211019 3 4 tcp 1000 ------N 0 0.0 4.0 14401 29
- 0.211563 0 2 tcp 1000 ------N 0 0.0 4.0 23041 42
- 0.211685 2 3 tcp 1000 ------N 0 0.0 4.0 17281 33
r 0.213563 0 2 tcp 1000 ------N 0 0.0 4.0 22081 41
+ 0.213563 2 3 tcp 1000 ------N 0 0.0 4.0 22081 41
r 0.214064 3 2 ack 40 ------- 0 4.0 0.0 1 34
+ 0.214064 2 0 ack 40 ------- 0 4.0 0.0 1 34
- 0.214064 2 0 ack 40 ------- 0 4.0 0.0 1 34
r 0.214363 0 2 tcp 1000 ------N 0 0.0 4.0 23041 42
+ 0.214363 2 3 tcp 1000 ------N 0 0.0 4.0 23041 42
r 0.214517 4 3 ack 40 ------- 0 4.0 0.0 1 40
+ 0.214517 3 2 ack 40 ------- 0 4.0 0.0 1 40
- 0.214517 3 2 ack 40 ------- 0 4.0 0.0 1 40
r 0.215819 3 4 tcp 1000 ------N 0 0.0 4.0 14401 29
+ 0.215819 4 3 ack 40 ------- 0 4.0 0.0 1 43
- 0.215819 4 3 ack 40 ------- 0 4.0 0.0 1 43
r 0.216096 2 0 ack 40 ------- 0 4.0 0.0 1 34
+ 0.216096 0 2 tcp 1000 ------N 0 0.0 4.0 24001 44
- 0.216096 0 2 tcp 1000 ------N 0 0.0 4.0 24001 44
+ 0.216096 0 2 tcp 1000 ------N 0 0.0 4.0 24961 45
r 0.216352 2 3 tcp 1000 ------N 0 0.0 4.0 15361 30
+ 0.216352 3 4 tcp 1000 ------N 0 0.0 4.0 15361 30
- 0.216352 3 4 tcp 1000 ------N 0 0.0 4.0 15361 30
- 0.216896 0 2 tcp 1000 ------N 0 0.0 4.0 24961 45
- 0.217019 2 3 tcp 1000 ------N 0 0.0 4.0 18241 35
r 0.218896 0 2 tcp 1000 ------N 0 0.0 4.0 24001 44
+ 0.218896 2 3 tcp 1000 ------N 0 0.0 4.0 24001 44
r 0.219397 3 2 ack 40 ------- 0 4.0 0.0 1 37
+ 0.219397 2 0 ack 40 ------- 0 4.0 0.0 1 37
- 0.219397 2 0 ack 40 ------- 0 4.0 0.0 1 37
r 0.219696 0 2 tcp 1000 ------N 0 0.0 4.0 24961 45
+ 0.219696 2 3 tcp 1000 ------N 0 0.0 4.0 24961 45
r 0.219851 4 3 ack 40 ------- 0 4.0 0.0 1 43
+ 0.219851 3 2 ack 40 ------- 0 4.0 0.0 1 43
- 0.219851 3 2 ack 40 ------- 0 4.0 0.0 1 43
r 0.221152 3 4 tcp 1000 ------N 0 0.0 4.0 15361 30
+ 0.221152 4 3 ack 40 ------- 0 4.0 0.0 1 46
- 0.221152 4 3 ack 40 ------- 0 4.0 0.0 1 46
r 0.221429 2 0 ack 40 ------- 0 4.0 0.0 1 37
+ 0.221429 0 2 tcp 1000 ------N 0 0.0 4.0 25921 47
- 0.221429 0 2 tcp 1000 ------N 0 0.0 4.0 25921 47
+ 0.221429 0 2 tcp 1000 ------N 0 0.0 4.0 26881 48
r 0.221685 2 3 tcp 1000 ------N 0 0.0 4.0 16321 32
+ 0.221685 3 4 tcp 1000 ------N 0 0.0 4.0 16321 32
- 0.221685 3 4 tcp 1000 ------N 0 0.0 4.0 16321 32
- 0.222229 0 2 tcp 1000 ------N 0 0.0 4.0 26881 48
- 0.222352 2 3 tcp 1000 ------N 0 0.0 4.0 19201 36
r 0.224229 0 2 tcp 1000 ------N 0 0.0 4.0 25921 47
+ 0.224229 2 3 tcp 1000 ------N 0 0.0 4.0 25921 47
r 0.224731 3 2 ack 40 ------- 0 4.0 0.0 1 40
+ 0.224731 2 0 ack 40 ------- 0 4.0 0.0 1 40
- 0.224731 2 0 ack 40 ------- 0 4.0 0.0 1 40
r 0.225029 0 2 tcp 1000 ------N 0 0.0 4.0 26881 48
+ 0.225029 2 3 tcp 1000 ------N 0 0.0 4.0 26881 48
r 0.225184 4 3 ack 40 ------- 0 4.0 0.0 1 46
+ 0.225184 3 2 ack 40 ------- 0 4.0 0.0 1 46
- 0.225184 3 2 ack 40 ------- 0 4.0 0.0 1 46
r 0.226485 3 4 tcp 1000 ------N 0 0.0 4.0 16321 32
+ 0.226485 4 3 ack 40 ------- 0 4.0 0.0 1 49
- 0.226485 4 3 ack 40 ------- 0 4.0 0.0 1 49
r 0.226763 2 0 ack 40 ------- 0 4.0 0.0 1 40
+ 0.226763 0 2 tcp 1000 ------N 0 0.0 4.0 27841 50
- 0.226763 0 2 tcp 1000 ------N 0 0.0 4.0 27841 50
+ 0.226763 0 2 tcp 1000 ------N 0 0.0 4.0 28801 51
r 0.227019 2 3 tcp 1000 ------N 0 0.0 4.0 17281 33
+ 0.227019 3 4 tcp 1000 ------N 0 0.0 4.0 17281 33
- 0.227019 3 4 tcp 1000 ------N 0 0.0 4.0 17281 33
- 0.227563 0 2 tcp 1000 ------N 0 0.0 4.0 28801 51
- 0.227685 2 3 tcp 1000 ------N 0 0.0 4.0 20161 38
r 0.229563 0 2 tcp 1000 ------N 0 0.0 4.0 27841 50
+ 0.229563 2 3 tcp 1000 ------N 0 0.0 4.0 27841 50
r 0.230064 3 2 ack 40 ------- 0 4.0 0.0 1 43
+ 0.230064 2 0 ack 40 ------- 0 4.0 0.0 1 43
- 0.230064 2 0 ack 40 ------- 0 4.0 0.0 1 43
r 0.230363 0 2 tcp 1000 ------N 0 0.0 4.0 28801 51
+ 0.230363 2 3 tcp 1000 ------N 0 0.0 4.0 28801 51
r 0.230517 4 3 ack 40 ------- 0 4.0 0.0 1 49
+ 0.230517 3 2 ack 40 ------- 0 4.0 0.0 1 49
- 0.230517 3 2 ack 40 ------- 0 4.0 0.0 1 49
r 0.231819 3 4 tcp 1000 ------N 0 0.0 4.0 17281 33
+ 0.231819 4 3 ack 40 ------- 0 4.0 0.0 1 52
- 0.231819 4 3 ack 40 ------- 0 4.0 0.0 1 52
r 0.232096 2 0 ack 40 ------- 0 4.0 0.0 1 43
+ 0.232096 0 2 tcp 1000 ------N 0 0.0 4.0 29761 53
- 0.232096 0 2 tcp 1000 ------N 0 0.0 4.0 29761 53
+ 0.232096 0 2 tcp 1000 ------N 0 0.0 4.0 30721 54
r 0.232352 2 3 tcp 1000 ------N 0 0.0 4.0 18241 35
+ 0.232352 3 4 tcp 1000 ------N 0 0.0 4.0 18241 35
- 0.232352 3 4 tcp 1000 ------N 0 0.0 4.0 18241 35
- 0.232896 0 2 tcp 1000 ------N 0 0.0 4.0 30721 54
- 0.233019 2 3 tcp 1000 ------N 0 0.0 4.0 21121 39
r 0.234896 0 2 tcp 1000 ------N 0 0.0 4.0 29761 53
+ 0.234896 2 3 tcp 1000 ------N 0 0.0 4.0 29761 53
r 0.235397 3 2 ack 40 ------- 0 4.0 0.0 1 46
+ 0.235397 2 0 ack 40 ------- 0 4.0 0.0 1 46
- 0.235397 2 0 ack 40 ------- 0 4.0 0.0 1 46
r 0.235696 0 2 tcp 1000 ------N 0 0.0 4.0 30721 54
+ 0.235696 2 3 tcp 1000 ------N 0 0.0 4.0 30721 54
r 0.235851 4 3 ack 40 ------- 0 4.0 0.0 1 52
+ 0.235851 3 2 ack 40 ------- 0 4.0 0.0 1 52
- 0.235851 3 2 ack 40 ------- 0 4.0 0.0 1 52
r 0.237152 3 4 tcp 1000 ------N 0 0.0 4.0 18241 35
+ 0.237152 4 3 ack 40 ------- 0 4.0 0.0 1 55
- 0.237152 4 3 ack 40 ------- 0 4.0 0.0 1 55
r 0.237429 2 0 ack 40 ------- 0 4.0 0.0 1 46
+ 0.237429 0 2 tcp 1000 ------N 0 0.0 4.0 31681 56
- 0.237429 0 2 tcp 1000 ------N 0 0.0 4.0 31681 56
+ 0.237429 0 2 tcp 1000 ------N 0 0.0 4.0 32641 57
r 0.237685 2 3 tcp 1000 ------N 0 0.0 4.0 19201 36
+ 0.237685 3 4 tcp 1000 ------N 0 0.0 4.0 19201 36
- 0.237685 3 4 tcp 1000 ------N 0 0.0 4.0 19201 36
- 0.238229 0 2 tcp 1000 ------N 0 0.0 4.0 32641 57
- 0.238352 2 3 tcp 1000 ------N 0 0.0 4.0 22081 41
r 0.240229 0 2 tcp 1000 ------N 0 0.0 4.0 31681 56
+ 0.240229 2 3 tcp 1000 ------N 0 0.0 4.0 31681 56
r 0.240731 3 2 ack 40 ------- 0 4.0 0.0 1 49
+ 0.240731 2 0 ack 40 ------- 0 4.0 0.0 1 49
- 0.240731 2 0 ack 40 ------- 0 4.0 0.0 1 49
r 0.241029 0 2 tcp 1000 ------N 0 0.0 4.0 32641 57
+ 0.241029 2 3 tcp 1000 ------N 0 0.0 4.0 32641 57
r 0.241184 4 3 ack 40 ------- 0 4.0 0.0 1 55
+ 0.241184 3 2 ack 40 ------- 0 4.0 0.0 1 55
- 0.241184 3 2 ack 40 ------- 0 4.0 0.0 1 55
r 0.242485 3 4 tcp 1000 ------N 0 0.0 4.0 19201 36
+ 0.242485 4 3 ack 40 ------- 0 4.0 0.0 1 58
- 0.242485 4 3 ack 40 ------- 0 4.0 0.0 1 58
r 0.242763 2 0 ack 40 ------- 0 4.0 0.0 1 49
+ 0.242763 0 2 tcp 1000 ------N 0 0.0 4.0 33601 59
- 0.242763 0 2 tcp 1000 ------N 0 0.0 4.0 33601 59
+ 0.242763 0 2 tcp 1000 ------N 0 0.0 4.0 34561 60
r 0.243019 2 3 tcp 1000 ------N 0 0.0 4.0 20161 38
+ 0.243019 3 4 tcp 1000 ------N 0 0.0 4.0 20161 38
- 0.243019 3 4 tcp 1000 ------N 0 0.0 4.0 20161 38
- 0.243563 0 2 tcp 1000 ------N 0 0.0 4.0 34561 60
- 0.243685 2 3 tcp 1000 ------N 0 0.0 4.0 23041 42
r 0.245563 0 2 tcp 1000 ------N 0 0.0 4.0 33601 59
+ 0.245563 2 3 tcp 1000 ------N 0 0.0 4.0 33601 59
r 0.246064 3 2 ack 40 ------- 0 4.0 0.0 1 52
+ 0.246064 2 0 ack 40 ------- 0 4.0 0.0 1 52
- 0.246064 2 0 ack 40 ------- 0 4.0 0.0 1 52
r 0.246363 0 2 tcp 1000 ------N 0 0.0 4.0 34561 60
+ 0.246363 2 3 tcp 1000 ------N 0 0.0 4.0 34561 60
r 0.246517 4 3 ack 40 ------- 0 4.0 0.0 1 58
+ 0.246517 3 2 ack 40 ------- 0 4.0 0.0 1 58
- 0.246517 3 2 ack 40 ------- 0 4.0 0.0 1 58
r 0.247819 3 4 tcp 1000 ------N 0 0.0 4.0 20161 38
+ 0.247819 4 3 ack 40 ------- 0 4.0 0.0 1 61
- 0.247819 4 3 ack 40 ------- 0 4.0 0.0 1 61
r 0.248096 2 0 ack 40 ------- 0 4.0 0.0 1 52
+ 0.248096 0 2 tcp 1000 ------N 0 0.0 4.0 35521 62
- 0.248096 0 2 tcp 1000 ------N 0 0.0 4.0 35521 62
+ 0.248096 0 2 tcp 1000 ------N 0 0.0 4.0 36481 63
r 0.248352 2 3 tcp 1000 ------N 0 0.0 4.0 21121 39
+ 0.248352 3 4 tcp 1000 ------N 0 0.0 4.0 21121 39
- 0.248352 3 4 tcp 1000 ------N 0 0.0 4.0 21121 39
- 0.248896 0 2 tcp 1000 ------N 0 0.0 4.0 36481 63
- 0.249019 2 3 tcp 1000 ------N 0 0.0 4.0 24001 44
r 0.250896 0 2 tcp 1000 ------N 0 0.0 4.0 35521 62
+ 0.250896 2 3 tcp 1000 ------N 0 0.0 4.0 35521 62
r 0.251397 3 2 ack 40 ------- 0 4.0 0.0 1 55
+ 0.251397 2 0 ack 40 ------- 0 4.0 0.0 1 55
- 0.251397 2 0 ack 40 ------- 0 4.0 0.0 1 55
r 0.251696 0 2 tcp 1000 ------N 0 0.0 4.0 36481 63
+ 0.251696 2 3 tcp 1000 ------N 0 0.0 4.0 36481 63
r 0.251851 4 3 ack 40 ------- 0 4.0 0.0 1 61
+ 0.251851 3 2 ack 40 ------- 0 4.0 0.0 1 61
- 0.251851 3 2 ack 40 ------- 0 4.0 0.0 1 61
r 0.253152 3 4 tcp 1000 ------N 0 0.0 4.0 21121 39
+ 0.253152 4 3 ack 40 ------- 0 4.0 0.0 1 64
- 0.253152 4 3 ack 40 ------- 0 4.0 0.0 1 64
r 0.253429 2 0 ack 40 ------- 0 4.0 0.0 1 55
+ 0.253429 0 2 tcp 1000 ------N 0 0.0 4.0 37441 65
- 0.253429 0 2 tcp 1000 ------N 0 0.0 4.0 37441 65
+ 0.253429 0 2 tcp 1000 ------N 0 0.0 4.0 38401 66
r 0.253685 2 3 tcp 1000 ------N 0 0.0 4.0 22081 41
+ 0.253685 3 4 tcp 1000 ------N 0 0.0 4.0 22081 41
- 0.253685 3 4 tcp 1000 ------N 0 0.0 4.0 22081 41
- 0.254229 0 2 tcp 1000 ------N 0 0.0 4.0 38401 66
- 0.254352 2 3 tcp 1000 ------N 0 0.0 4.0 24961 45
r 0.256229 0 2 tcp 1000 ------N 0 0.0 4.0 37441 65
+ 0.256229 2 3 tcp 1000 ------N 0 0.0 4.0 37441 65
r 0.256731 3 2 ack 40 ------- 0 4.0 0.0 1 58
+ 0.256731 2 0 ack 40 ------- 0 4.0 0.0 1 58
- 0.256731 2 0 ack 40 ------- 0 4.0 0.0 1 58
r 0.257029 0 2 tcp 1000 ------N 0 0.0 4.0 38401 66
+ 0.257029 2 3 tcp 1000 ------N 0 0.0 4.0 38401 66
r 0.257184 4 3 ack 40 ------- 0 4.0 0.0 1 64
+ 0.257184 3 2 ack 40 ------- 0 4.0 0.0 1 64
- 0.257184 3 2 ack 40 ------- 0 4.0 0.0 1 64
r 0.258485 3 4 tcp 1000 ------N 0 0.0 4.0 22081 41
+ 0.258485 4 3 ack 40 ------- 0 4.0 0.0 1 67
- 0.258485 4 3 ack 40 ------- 0 4.0 0.0 1 67
r 0.258763 2 0 ack 40 ------- 0 4.0 0.0 1 58
+ 0.258763 0 2 tcp 1000 ------N 0 0.0 4.0 39361 68
- 0.258763 0 2 tcp 1000 ------N 0 0.0 4.0 39361 68
+ 0.258763 0 2 tcp 1000 ------N 0 0.0 4.0 40321 69
r 0.259019 2 3 tcp 1000 ------N 0 0.0 4.0 23041 42
+ 0.259019 3 4 tcp 1000 ------N 0 0.0 4.0 23041 42
- 0.259019 3 4 tcp 1000 ------N 0 0.0 4.0 23041 42
- 0.259563 0 2 tcp 1000 ------N 0 0.0 4.0 40321 69
- 0.259685 2 3 tcp 1000 ------N 0 0.0 4.0 25921 47
r 0.261563 0 2 tcp 1000 ------N 0 0.0 4.0 39361 68
+ 0.261563 2 3 tcp 1000 ------N 0 0.0 4.0 39361 68
r 0.262064 3 2 ack 40 ------- 0 4.0 0.0 1 61
+ 0.262064 2 0 ack 40 ------- 0 4.0 0.0 1 61
- 0.262064 2 0 ack 40 ------- 0 4.0 0.0 1 61
r 0.262363 0 2 tcp 1000 ------N 0 0.0 4.0 40321 69
+ 0.262363 2 3 tcp 1000 ------N 0 0.0 4.0 40321 69
r 0.262517 4 3 ack 40 ------- 0 4.0 0.0 1 67
+ 0.262517 3 2 ack 40 ------- 0 4.0 0.0 1 67
- 0.262517 3 2 ack 40 ------- 0 4.0 0.0 1 67
r 0.263819 3 4 tcp 1000 ------N 0 0.0 4.0 23041 42
+ 0.263819 4 3 ack 40 ------- 0 4.0 0.0 1 70
- 0.263819 4 3 ack 40 ------- 0 4.0 0.0 1 70
r 0.264096 2 0 ack 40 ------- 0 4.0 0.0 1 61
+ 0.264096 0 2 tcp 1000 ------N 0 0.0 4.0 41281 71
- 0.264096 0 2 tcp 1000 ------N 0 0.0 4.0 41281 71
+ 0.264096 0 2 tcp 1000 ------N 0 0.0 4.0 42241 72
r 0.264352 2 3 tcp 1000 ------N 0 0.0 4.0 24001 44
+ 0.264352 3 4 tcp 1000 ------N 0 0.0 4.0 24001 44
- 0.264352 3 4 tcp 1000 ------N 0 0.0 4.0 24001 44
- 0.264896 0 2 tcp 1000 ------N 0 0.0 4.0 42241 72
- 0.265019 2 3 tcp 1000 ------N 0 0.0 4.0 26881 48
r 0.266896 0 2 tcp 1000 ------N 0 0.0 4.0 41281 71
+ 0.266896 2 3 tcp 1000 ------N 0 0.0 4.0 41281 71
r 0.267397 3 2 ack 40 ------- 0 4.0 0.0 1 64
+ 0.267397 2 0 ack 40 ------- 0 4.0 0.0 1 64
- 0.267397 2 0 ack 40 ------- 0 4.0 0.0 1 64
r 0.267696 0 2 tcp 1000 ------N 0 0.0 4.0 42241 72
+ 0.267696 2 3 tcp 1000 ------N 0 0.0 4.0 42241 72
r 0.267851 4 3 ack 40 ------- 0 4.0 0.0 1 70
+ 0.267851 3 2 ack 40 ------- 0 4.0 0.0 1 70
- 0.267851 3 2 ack 40 ------- 0 4.0 0.0 1 70
r 0.269152 3 4 tcp 1000 ------N 0 0.0 4.0 24001 44
+ 0.269152 4 3 ack 40 ------- 0 4.0 0.0 1 73
- 0.269152 4 3 ack 40 ------- 0 4.0 0.0 1 73
r 0.269429 2 0 ack 40 ------- 0 4.0 0.0 1 64
+ 0.269429 0 2 tcp 1000 ------N 0 0.0 4.0 43201 74
- 0.269429 0 2 tcp 1000 ------N 0 0.0 4.0 43201 74
+ 0.269429 0 2 tcp 1000 ------N 0 0.0 4.0 44161 75
r 0.269685 2 3 tcp 1000 ------N 0 0.0 4.0 24961 45
+ 0.269685 3 4 tcp 1000 ------N 0 0.0 4.0 24961 45
- 0.269685 3 4 tcp 1000 ------N 0 0.0 4.0 24961 45
- 0.270229 0 2 tcp 1000 ------N 0 0.0 4.0 44161 75
- 0.270352 2 3 tcp 1000 ------N 0 0.0 4.0 27841 50
r 0.272229 0 2 tcp 1000 ------N 0 0.0 4.0 43201 74
+ 0.272229 2 3 tcp 1000 ------N 0 0.0 4.0 43201 74
r 0.272731 3 2 ack 40 ------- 0 4.0 0.0 1 67
+ 0.272731 2 0 ack 40 ------- 0 4.0 0.0 1 67
- 0.272731 2 0 ack 40 ------- 0 4.0 0.0 1 67
r 0.273029 0 2 tcp 1000 ------N 0 0.0 4.0 44161 75
+ 0.273029 2 3 tcp 1000 ------N 0 0.0 4.0 44161 75
r 0.273184 4 3 ack 40 ------- 0 4.0 0.0 1 73
+ 0.273184 3 2 ack 40 ------- 0 4.0 0.0 1 73
- 0.273184 3 2 ack 40 ------- 0 4.0 0.0 1 73
r 0.274485 3 4 tcp 1000 ------N 0 0.0 4.0 24961 45
+ 0.274485 4 3 ack 40 ------- 0 4.0 0.0 1 76
- 0.274485 4 3 ack 40 ------- 0 4.0 0.0 1 76
r 0.274763 2 0 ack 40 ------- 0 4.0 0.0 1 67
+ 0.274763 0 2 tcp 1000 ------N 0 0.0 4.0 45121 77
- 0.274763 0 2 tcp 1000 ------N 0 0.0 4.0 45121 77
+ 0.274763 0 2 tcp 1000 ------N 0 0.0 4.0 46081 78
r 0.275019 2 3 tcp 1000 ------N 0 0.0 4.0 25921 47
+ 0.275019 3 4 tcp 1000 ------N 0 0.0 4.0 25921 47
- 0.275019 3 4 tcp 1000 ------N 0 0.0 4.0 25921 47
- 0.275563 0 2 tcp 1000 ------N 0 0.0 4.0 46081 78
- 0.275685 2 3 tcp 1000 ------N 0 0.0 4.0 28801 51
r 0.277563 0 2 tcp 1000 ------N 0 0.0 4.0 45121 77
+ 0.277563 2 3 tcp 1000 ------N 0 0.0 4.0 45121 77
r 0.278064 3 2 ack 40 ------- 0 4.0 0.0 1 70
+ 0.278064 2 0 ack 40 ------- 0 4.0 0.0 1 70
- 0.278064 2 0 ack 40 ------- 0 4.0 0.0 1 70
r 0.278363 0 2 tcp 1000 ------N 0 0.0 4.0 46081 78
+ 0.278363 2 3 tcp 1000 ------N 0 0.0 4.0 46081 78
r 0.278517 4 3 ack 40 ------- 0 4.0 0.0 1 76
+ 0.278517 3 2 ack 40 ------- 0 4.0 0.0 1 76
- 0.278517 3 2 ack 40 ------- 0 4.0 0.0 1 76
r 0.279819 3 4 tcp 1000 ------N 0 0.0 4.0 25921 47
+ 0.279819 4 3 ack 40 ------- 0 4.0 0.0 1 79
- 0.279819 4 3 ack 40 ------- 0 4.0 0.0 1 79
r 0.280096 2 0 ack 40 ------- 0 4.0 0.0 1 70
+ 0.280096 0 2 tcp 1000 ------N 0 0.0 4.0 47041 80
- 0.280096 0 2 tcp 1000 ------N 0 0.0 4.0 47041 80
+ 0.280096 0 2 tcp 1000 ------N 0 0.0 4.0 48001 81
r 0.280352 2 3 tcp 1000 ------N 0 0.0 4.0 26881 48
+ 0.280352 3 4 tcp 1000 ------N 0 0.0 4.0 26881 48
- 0.280352 3 4 tcp 1000 ------N 0 0.0 4.0 26881 48
- 0.280896 0 2 tcp 1000 ------N 0 0.0 4.0 48001 81
- 0.281019 2 3 tcp 1000 ------N 0 0.0 4.0 29761 53
r 0.282896 0 2 tcp 1000 ------N 0 0.0 4.0 47041 80
+ 0.282896 2 3 tcp 1000 ------N 0 0.0 4.0 47041 80
r 0.283397 3 2 ack 40 ------- 0 4.0 0.0 1 73
+ 0.283397 2 0 ack 40 ------- 0 4.0 0.0 1 73
- 0.283397 2 0 ack 40 ------- 0 4.0 0.0 1 73
r 0.283696 0 2 tcp 1000 ------N 0 0.0 4.0 48001 81
+ 0.283696 2 3 tcp 1000 ------N 0 0.0 4.0 48001 81
r 0.283851 4 3 ack 40 ------- 0 4.0 0.0 1 79
+ 0.283851 3 2 ack 40 ------- 0 4.0 0.0 1 79
- 0.283851 3 2 ack 40 ------- 0 4.0 0.0 1 79
r 0.285152 3 4 tcp 1000 ------N 0 0.0 4.0 26881 48
+ 0.285152 4 3 ack 40 ------- 0 4.0 0.0 1 82
- 0.285152 4 3 ack 40 ------- 0 4.0 0.0 1 82
r 0.285429 2 0 ack 40 ------- 0 4.0 0.0 1 73