v testName spikeNDupAck
+ 1.009 2 3 tcp 1000 ------- 1 0.0 3.0 0 0 0 0x0 0 0
- 1.009 2 3 tcp 1000 ------- 1 0.0 3.0 0 0 0 0x0 0 0
r 1.039 2 3 tcp 1000 ------- 1 0.0 3.0 0 0 0 0x0 0 0
+ 1.2594 2 0 ack 40 ------- 1 3.0 0.0 0 1 0 0x0 0 0
- 1.2594 2 0 ack 40 ------- 1 3.0 0.0 0 1 0 0x0 0 0
r 1.26456 2 0 ack 40 ------- 1 3.0 0.0 0 1 0 0x0 0 0
+ 1.27356 2 3 tcp 1000 ------- 1 0.0 3.0 1 2 0 0x0 0 0
- 1.27356 2 3 tcp 1000 ------- 1 0.0 3.0 1 2 0 0x0 0 0
+ 1.27756 2 3 tcp 1000 ------- 1 0.0 3.0 2 3 0 0x0 0 0
- 1.28356 2 3 tcp 1000 ------- 1 0.0 3.0 2 3 0 0x0 0 0
r 1.30356 2 3 tcp 1000 ------- 1 0.0 3.0 1 2 0 0x0 0 0
r 1.31356 2 3 tcp 1000 ------- 1 0.0 3.0 2 3 0 0x0 0 0
+ 1.33396 2 0 ack 40 ------- 1 3.0 0.0 2 4 0 0x0 0 0
- 1.33396 2 0 ack 40 ------- 1 3.0 0.0 2 4 0 0x0 0 0
r 1.33912 2 0 ack 40 ------- 1 3.0 0.0 2 4 0 0x0 0 0
+ 1.34812 2 3 tcp 1000 ------- 1 0.0 3.0 3 5 0 0x0 0 0
- 1.34812 2 3 tcp 1000 ------- 1 0.0 3.0 3 5 0 0x0 0 0
+ 1.35212 2 3 tcp 1000 ------- 1 0.0 3.0 4 6 0 0x0 0 0
+ 1.35612 2 3 tcp 1000 ------- 1 0.0 3.0 5 7 0 0x0 0 0
- 1.35812 2 3 tcp 1000 ------- 1 0.0 3.0 4 6 0 0x0 0 0
- 1.36812 2 3 tcp 1000 ------- 1 0.0 3.0 5 7 0 0x0 0 0
r 1.37812 2 3 tcp 1000 ------- 1 0.0 3.0 3 5 0 0x0 0 0
r 1.38812 2 3 tcp 1000 ------- 1 0.0 3.0 4 6 0 0x0 0 0
r 1.39812 2 3 tcp 1000 ------- 1 0.0 3.0 5 7 0 0x0 0 0
+ 1.40852 2 0 ack 40 ------- 1 3.0 0.0 4 8 0 0x0 0 0
- 1.40852 2 0 ack 40 ------- 1 3.0 0.0 4 8 0 0x0 0 0
r 1.41368 2 0 ack 40 ------- 1 3.0 0.0 4 8 0 0x0 0 0
+ 1.42268 2 3 tcp 1000 ------- 1 0.0 3.0 6 9 0 0x0 0 0
- 1.42268 2 3 tcp 1000 ------- 1 0.0 3.0 6 9 0 0x0 0 0
+ 1.42668 2 3 tcp 1000 ------- 1 0.0 3.0 7 10 0 0x0 0 0
+ 1.43068 2 3 tcp 1000 ------- 1 0.0 3.0 8 11 0 0x0 0 0
- 1.43268 2 3 tcp 1000 ------- 1 0.0 3.0 7 10 0 0x0 0 0
- 1.44268 2 3 tcp 1000 ------- 1 0.0 3.0 8 11 0 0x0 0 0
r 1.45268 2 3 tcp 1000 ------- 1 0.0 3.0 6 9 0 0x0 0 0
r 1.46268 2 3 tcp 1000 ------- 1 0.0 3.0 7 10 0 0x0 0 0
r 1.47268 2 3 tcp 1000 ------- 1 0.0 3.0 8 11 0 0x0 0 0
+ 1.47308 2 0 ack 40 ------- 1 3.0 0.0 6 12 0 0x0 0 0
- 1.47308 2 0 ack 40 ------- 1 3.0 0.0 6 12 0 0x0 0 0
r 1.47824 2 0 ack 40 ------- 1 3.0 0.0 6 12 0 0x0 0 0
+ 1.48724 2 3 tcp 1000 ------- 1 0.0 3.0 9 14 0 0x0 0 0
- 1.48724 2 3 tcp 1000 ------- 1 0.0 3.0 9 14 0 0x0 0 0
+ 1.49124 2 3 tcp 1000 ------- 1 0.0 3.0 10 15 0 0x0 0 0
+ 1.49308 2 0 ack 40 ------- 1 3.0 0.0 8 13 0 0x0 0 0
- 1.49308 2 0 ack 40 ------- 1 3.0 0.0 8 13 0 0x0 0 0
+ 1.49524 2 3 tcp 1000 ------- 1 0.0 3.0 11 16 0 0x0 0 0
- 1.49724 2 3 tcp 1000 ------- 1 0.0 3.0 10 15 0 0x0 0 0
r 1.49824 2 0 ack 40 ------- 1 3.0 0.0 8 13 0 0x0 0 0
- 1.50724 2 3 tcp 1000 ------- 1 0.0 3.0 11 16 0 0x0 0 0
+ 1.50724 2 3 tcp 1000 ------- 1 0.0 3.0 12 17 0 0x0 0 0
r 1.51724 2 3 tcp 1000 ------- 1 0.0 3.0 9 14 0 0x0 0 0
- 1.51724 2 3 tcp 1000 ------- 1 0.0 3.0 12 17 0 0x0 0 0
r 1.52724 2 3 tcp 1000 ------- 1 0.0 3.0 10 15 0 0x0 0 0
r 1.53724 2 3 tcp 1000 ------- 1 0.0 3.0 11 16 0 0x0 0 0
r 1.54724 2 3 tcp 1000 ------- 1 0.0 3.0 12 17 0 0x0 0 0
+ 1.54764 2 0 ack 40 ------- 1 3.0 0.0 10 20 0 0x0 0 0
- 1.54764 2 0 ack 40 ------- 1 3.0 0.0 10 20 0 0x0 0 0
r 1.5528 2 0 ack 40 ------- 1 3.0 0.0 10 20 0 0x0 0 0
+ 1.56764 2 0 ack 40 ------- 1 3.0 0.0 12 21 0 0x0 0 0
- 1.56764 2 0 ack 40 ------- 1 3.0 0.0 12 21 0 0x0 0 0
r 1.5728 2 0 ack 40 ------- 1 3.0 0.0 12 21 0 0x0 0 0
+ 2.509 2 3 tcp 1000 ------- 1 0.0 3.0 13 18 0 0x0 0 0
d 2.509 2 3 tcp 1000 ------- 1 0.0 3.0 13 18 0 0x0 0 0
+ 2.513 2 3 tcp 1000 ------- 1 0.0 3.0 14 19 0 0x0 0 0
- 2.513 2 3 tcp 1000 ------- 1 0.0 3.0 14 19 0 0x0 0 0
+ 2.517 2 3 tcp 1000 ------- 1 0.0 3.0 15 22 0 0x0 0 0
+ 2.521 2 3 tcp 1000 ------- 1 0.0 3.0 16 23 0 0x0 0 0
- 2.523 2 3 tcp 1000 ------- 1 0.0 3.0 15 22 0 0x0 0 0
+ 2.525 2 3 tcp 1000 ------- 1 0.0 3.0 17 24 0 0x0 0 0
+ 2.529 2 3 tcp 1000 ------- 1 0.0 3.0 18 25 0 0x0 0 0
- 2.533 2 3 tcp 1000 ------- 1 0.0 3.0 16 23 0 0x0 0 0
+ 2.533 2 3 tcp 1000 ------- 1 0.0 3.0 19 26 0 0x0 0 0
+ 2.537 2 3 tcp 1000 ------- 1 0.0 3.0 20 27 0 0x0 0 0
+ 2.541 2 3 tcp 1000 ---A--- 1 0.0 3.0 13 28 0 0x0 0 0
- 2.543 2 3 tcp 1000 ------- 1 0.0 3.0 17 24 0 0x0 0 0
r 2.543 2 3 tcp 1000 ------- 1 0.0 3.0 14 19 0 0x0 0 0
- 2.553 2 3 tcp 1000 ------- 1 0.0 3.0 18 25 0 0x0 0 0
r 2.553 2 3 tcp 1000 ------- 1 0.0 3.0 15 22 0 0x0 0 0
- 2.563 2 3 tcp 1000 ------- 1 0.0 3.0 19 26 0 0x0 0 0
r 2.563 2 3 tcp 1000 ------- 1 0.0 3.0 16 23 0 0x0 0 0
+ 2.56348 2 0 ack 48 ------- 1 3.0 0.0 12 29 0 0x0 0 1
- 2.56348 2 0 ack 48 ------- 1 3.0 0.0 12 29 0 0x0 0 1
r 2.568672 2 0 ack 48 ------- 1 3.0 0.0 12 29 0 0x0 0 1
- 2.573 2 3 tcp 1000 ------- 1 0.0 3.0 20 27 0 0x0 0 0
r 2.573 2 3 tcp 1000 ------- 1 0.0 3.0 17 24 0 0x0 0 0
+ 2.57348 2 0 ack 48 ------- 1 3.0 0.0 12 30 0 0x0 0 1
- 2.57348 2 0 ack 48 ------- 1 3.0 0.0 12 30 0 0x0 0 1
r 2.578672 2 0 ack 48 ------- 1 3.0 0.0 12 30 0 0x0 0 1
- 2.583 2 3 tcp 1000 ---A--- 1 0.0 3.0 13 28 0 0x0 0 0
r 2.583 2 3 tcp 1000 ------- 1 0.0 3.0 18 25 0 0x0 0 0
+ 2.58348 2 0 ack 48 ------- 1 3.0 0.0 12 31 0 0x0 0 1
- 2.58348 2 0 ack 48 ------- 1 3.0 0.0 12 31 0 0x0 0 1
r 2.588672 2 0 ack 48 ------- 1 3.0 0.0 12 31 0 0x0 0 1
r 2.593 2 3 tcp 1000 ------- 1 0.0 3.0 19 26 0 0x0 0 0
+ 2.59348 2 0 ack 48 ------- 1 3.0 0.0 12 32 0 0x0 0 1
- 2.59348 2 0 ack 48 ------- 1 3.0 0.0 12 32 0 0x0 0 1
r 2.598672 2 0 ack 48 ------- 1 3.0 0.0 12 32 0 0x0 0 1
r 2.603 2 3 tcp 1000 ------- 1 0.0 3.0 20 27 0 0x0 0 0
+ 2.60348 2 0 ack 48 ------- 1 3.0 0.0 12 33 0 0x0 0 1
- 2.60348 2 0 ack 48 ------- 1 3.0 0.0 12 33 0 0x0 0 1
r 2.608672 2 0 ack 48 ------- 1 3.0 0.0 12 33 0 0x0 0 1
r 2.613 2 3 tcp 1000 ---A--- 1 0.0 3.0 13 28 0 0x0 0 0
+ 2.61348 2 0 ack 48 ------- 1 3.0 0.0 12 34 0 0x0 0 1
- 2.61348 2 0 ack 48 ------- 1 3.0 0.0 12 34 0 0x0 0 1
r 2.618672 2 0 ack 48 ------- 1 3.0 0.0 12 34 0 0x0 0 1
+ 2.62348 2 0 ack 48 ------- 1 3.0 0.0 12 35 0 0x0 0 1
- 2.62348 2 0 ack 48 ------- 1 3.0 0.0 12 35 0 0x0 0 1
r 2.628672 2 0 ack 48 ------- 1 3.0 0.0 12 35 0 0x0 0 1
+ 2.6334 2 0 ack 40 ------- 1 3.0 0.0 20 36 0 0x0 0 0
- 2.6334 2 0 ack 40 ------- 1 3.0 0.0 20 36 0 0x0 0 0
r 2.63856 2 0 ack 40 ------- 1 3.0 0.0 20 36 0 0x0 0 0
+ 2.64756 2 3 tcp 1000 ------- 1 0.0 3.0 21 37 0 0x0 0 0
- 2.64756 2 3 tcp 1000 ------- 1 0.0 3.0 21 37 0 0x0 0 0
+ 2.65156 2 3 tcp 1000 ------- 1 0.0 3.0 22 38 0 0x0 0 0
- 2.65756 2 3 tcp 1000 ------- 1 0.0 3.0 22 38 0 0x0 0 0
r 2.67756 2 3 tcp 1000 ------- 1 0.0 3.0 21 37 0 0x0 0 0
r 2.68756 2 3 tcp 1000 ------- 1 0.0 3.0 22 38 0 0x0 0 0
+ 2.70796 2 0 ack 40 ------- 1 3.0 0.0 22 39 0 0x0 0 0
- 2.70796 2 0 ack 40 ------- 1 3.0 0.0 22 39 0 0x0 0 0
r 2.71312 2 0 ack 40 ------- 1 3.0 0.0 22 39 0 0x0 0 0
+ 2.72212 2 3 tcp 1000 ------- 1 0.0 3.0 23 40 0 0x0 0 0
- 2.72212 2 3 tcp 1000 ------- 1 0.0 3.0 23 40 0 0x0 0 0
+ 2.72612 2 3 tcp 1000 ------- 1 0.0 3.0 24 41 0 0x0 0 0
+ 2.73012 2 3 tcp 1000 ------- 1 0.0 3.0 25 42 0 0x0 0 0
- 2.73212 2 3 tcp 1000 ------- 1 0.0 3.0 24 41 0 0x0 0 0
- 2.74212 2 3 tcp 1000 ------- 1 0.0 3.0 25 42 0 0x0 0 0
r 2.75212 2 3 tcp 1000 ------- 1 0.0 3.0 23 40 0 0x0 0 0
r 2.76212 2 3 tcp 1000 ------- 1 0.0 3.0 24 41 0 0x0 0 0
r 2.77212 2 3 tcp 1000 ------- 1 0.0 3.0 25 42 0 0x0 0 0
+ 2.78252 2 0 ack 40 ------- 1 3.0 0.0 24 43 0 0x0 0 0
- 2.78252 2 0 ack 40 ------- 1 3.0 0.0 24 43 0 0x0 0 0
r 2.78768 2 0 ack 40 ------- 1 3.0 0.0 24 43 0 0x0 0 0
+ 2.79668 2 3 tcp 1000 ------- 1 0.0 3.0 26 44 0 0x0 0 0
- 2.79668 2 3 tcp 1000 ------- 1 0.0 3.0 26 44 0 0x0 0 0
+ 2.80068 2 3 tcp 1000 ------- 1 0.0 3.0 27 45 0 0x0 0 0
+ 2.80468 2 3 tcp 1000 ------- 1 0.0 3.0 28 46 0 0x0 0 0
- 2.80668 2 3 tcp 1000 ------- 1 0.0 3.0 27 45 0 0x0 0 0
- 2.81668 2 3 tcp 1000 ------- 1 0.0 3.0 28 46 0 0x0 0 0
r 2.82668 2 3 tcp 1000 ------- 1 0.0 3.0 26 44 0 0x0 0 0
r 2.83668 2 3 tcp 1000 ------- 1 0.0 3.0 27 45 0 0x0 0 0
r 2.84668 2 3 tcp 1000 ------- 1 0.0 3.0 28 46 0 0x0 0 0
+ 2.84708 2 0 ack 40 ------- 1 3.0 0.0 26 47 0 0x0 0 0
- 2.84708 2 0 ack 40 ------- 1 3.0 0.0 26 47 0 0x0 0 0
r 2.85224 2 0 ack 40 ------- 1 3.0 0.0 26 47 0 0x0 0 0
+ 2.86124 2 3 tcp 1000 ------- 1 0.0 3.0 29 49 0 0x0 0 0
d 2.86124 2 3 tcp 1000 ------- 1 0.0 3.0 29 49 0 0x0 0 0
+ 2.86524 2 3 tcp 1000 ------- 1 0.0 3.0 30 50 0 0x0 0 0
- 2.86524 2 3 tcp 1000 ------- 1 0.0 3.0 30 50 0 0x0 0 0
+ 2.86708 2 0 ack 40 ------- 1 3.0 0.0 28 48 0 0x0 0 0
- 2.86708 2 0 ack 40 ------- 1 3.0 0.0 28 48 0 0x0 0 0
r 2.87224 2 0 ack 40 ------- 1 3.0 0.0 28 48 0 0x0 0 0
+ 2.88124 2 3 tcp 1000 ------- 1 0.0 3.0 31 51 0 0x0 0 0
- 2.88124 2 3 tcp 1000 ------- 1 0.0 3.0 31 51 0 0x0 0 0
+ 2.88524 2 3 tcp 1000 ------- 1 0.0 3.0 32 52 0 0x0 0 0
- 2.89124 2 3 tcp 1000 ------- 1 0.0 3.0 32 52 0 0x0 0 0
r 2.89524 2 3 tcp 1000 ------- 1 0.0 3.0 30 50 0 0x0 0 0
r 2.91124 2 3 tcp 1000 ------- 1 0.0 3.0 31 51 0 0x0 0 0
+ 2.91572 2 0 ack 48 ------- 1 3.0 0.0 28 53 0 0x0 0 1
- 2.91572 2 0 ack 48 ------- 1 3.0 0.0 28 53 0 0x0 0 1
r 2.920912 2 0 ack 48 ------- 1 3.0 0.0 28 53 0 0x0 0 1
r 2.92124 2 3 tcp 1000 ------- 1 0.0 3.0 32 52 0 0x0 0 0
+ 2.93172 2 0 ack 48 ------- 1 3.0 0.0 28 54 0 0x0 0 1
- 2.93172 2 0 ack 48 ------- 1 3.0 0.0 28 54 0 0x0 0 1
r 2.936912 2 0 ack 48 ------- 1 3.0 0.0 28 54 0 0x0 0 1
+ 2.94172 2 0 ack 48 ------- 1 3.0 0.0 28 55 0 0x0 0 1
- 2.94172 2 0 ack 48 ------- 1 3.0 0.0 28 55 0 0x0 0 1
r 2.946912 2 0 ack 48 ------- 1 3.0 0.0 28 55 0 0x0 0 1
+ 2.955912 2 3 tcp 1000 ---A--- 1 0.0 3.0 29 56 0 0x0 0 0
- 2.955912 2 3 tcp 1000 ---A--- 1 0.0 3.0 29 56 0 0x0 0 0
r 2.985912 2 3 tcp 1000 ---A--- 1 0.0 3.0 29 56 0 0x0 0 0
+ 3.006312 2 0 ack 40 ------- 1 3.0 0.0 32 57 0 0x0 0 0
- 3.006312 2 0 ack 40 ------- 1 3.0 0.0 32 57 0 0x0 0 0
r 3.011472 2 0 ack 40 ------- 1 3.0 0.0 32 57 0 0x0 0 0
+ 3.020472 2 3 tcp 1000 ------- 1 0.0 3.0 33 58 0 0x0 0 0
- 3.020472 2 3 tcp 1000 ------- 1 0.0 3.0 33 58 0 0x0 0 0
+ 3.024472 2 3 tcp 1000 ------- 1 0.0 3.0 34 59 0 0x0 0 0
- 3.030472 2 3 tcp 1000 ------- 1 0.0 3.0 34 59 0 0x0 0 0
r 3.050472 2 3 tcp 1000 ------- 1 0.0 3.0 33 58 0 0x0 0 0
r 3.060472 2 3 tcp 1000 ------- 1 0.0 3.0 34 59 0 0x0 0 0
+ 3.080872 2 0 ack 40 ------- 1 3.0 0.0 34 60 0 0x0 0 0
- 3.080872 2 0 ack 40 ------- 1 3.0 0.0 34 60 0 0x0 0 0
r 3.086032 2 0 ack 40 ------- 1 3.0 0.0 34 60 0 0x0 0 0
